s 0.500000000 _0_ AGT  --- 0 tcp 40 [0 0 0 0] ------- [0:0 3:0 32 0] [0 0] 0 0
r 0.500000000 _0_ RTR  --- 0 tcp 40 [0 0 0 0] ------- [0:0 3:0 32 0] [0 0] 0 0
s 0.500000000 _0_ RTR  --- 0 AODV 48 [0 0 0 0] ------- [0:255 -1:255 30 0] [0x2 1 1 [3 0] [0 4]] (REQUEST)
s 0.500375000 _0_ MAC  --- 0 AODV 106 [0 ffffffff 0 800] ------- [0:255 -1:255 30 0] [0x2 1 1 [3 0] [0 4]] (REQUEST)
r 0.501223661 _6_ MAC  --- 0 AODV 48 [0 ffffffff 0 800] ------- [0:255 -1:255 30 0] [0x2 1 1 [3 0] [0 4]] (REQUEST)
r 0.501248661 _6_ RTR  --- 0 AODV 48 [0 ffffffff 0 800] ------- [0:255 -1:255 30 0] [0x2 1 1 [3 0] [0 4]] (REQUEST)
s 0.509240216 _6_ RTR  --- 0 AODV 48 [0 ffffffff 0 800] ------- [6:255 -1:255 29 0] [0x2 2 1 [3 0] [0 4]] (REQUEST)
s 0.509475216 _6_ MAC  --- 0 AODV 106 [0 ffffffff 6 800] ------- [6:255 -1:255 29 0] [0x2 2 1 [3 0] [0 4]] (REQUEST)
r 0.510323877 _0_ MAC  --- 0 AODV 48 [0 ffffffff 6 800] ------- [6:255 -1:255 29 0] [0x2 2 1 [3 0] [0 4]] (REQUEST)
r 0.510323922 _5_ MAC  --- 0 AODV 48 [0 ffffffff 6 800] ------- [6:255 -1:255 29 0] [0x2 2 1 [3 0] [0 4]] (REQUEST)
r 0.510348877 _0_ RTR  --- 0 AODV 48 [0 ffffffff 6 800] ------- [6:255 -1:255 29 0] [0x2 2 1 [3 0] [0 4]] (REQUEST)
r 0.510348922 _5_ RTR  --- 0 AODV 48 [0 ffffffff 6 800] ------- [6:255 -1:255 29 0] [0x2 2 1 [3 0] [0 4]] (REQUEST)
s 0.512694940 _5_ RTR  --- 0 AODV 48 [0 ffffffff 6 800] ------- [5:255 -1:255 28 0] [0x2 3 1 [3 0] [0 4]] (REQUEST)
s 0.513129940 _5_ MAC  --- 0 AODV 106 [0 ffffffff 5 800] ------- [5:255 -1:255 28 0] [0x2 3 1 [3 0] [0 4]] (REQUEST)
r 0.513978646 _6_ MAC  --- 0 AODV 48 [0 ffffffff 5 800] ------- [5:255 -1:255 28 0] [0x2 3 1 [3 0] [0 4]] (REQUEST)
r 0.513978676 _4_ MAC  --- 0 AODV 48 [0 ffffffff 5 800] ------- [5:255 -1:255 28 0] [0x2 3 1 [3 0] [0 4]] (REQUEST)
r 0.514003646 _6_ RTR  --- 0 AODV 48 [0 ffffffff 5 800] ------- [5:255 -1:255 28 0] [0x2 3 1 [3 0] [0 4]] (REQUEST)
r 0.514003676 _4_ RTR  --- 0 AODV 48 [0 ffffffff 5 800] ------- [5:255 -1:255 28 0] [0x2 3 1 [3 0] [0 4]] (REQUEST)
s 0.522366911 _4_ RTR  --- 0 AODV 48 [0 ffffffff 5 800] ------- [4:255 -1:255 27 0] [0x2 4 1 [3 0] [0 4]] (REQUEST)
s 0.522481911 _4_ MAC  --- 0 AODV 106 [0 ffffffff 4 800] ------- [4:255 -1:255 27 0] [0x2 4 1 [3 0] [0 4]] (REQUEST)
r 0.523330635 _3_ MAC  --- 0 AODV 48 [0 ffffffff 4 800] ------- [4:255 -1:255 27 0] [0x2 4 1 [3 0] [0 4]] (REQUEST)
r 0.523330647 _5_ MAC  --- 0 AODV 48 [0 ffffffff 4 800] ------- [4:255 -1:255 27 0] [0x2 4 1 [3 0] [0 4]] (REQUEST)
r 0.523355635 _3_ RTR  --- 0 AODV 48 [0 ffffffff 4 800] ------- [4:255 -1:255 27 0] [0x2 4 1 [3 0] [0 4]] (REQUEST)
s 0.523355635 _3_ RTR  --- 0 AODV 44 [0 0 0 0] ------- [3:255 0:255 30 4] [0x4 1 [3 4] 10.000000] (REPLY)
r 0.523355647 _5_ RTR  --- 0 AODV 48 [0 ffffffff 4 800] ------- [4:255 -1:255 27 0] [0x2 4 1 [3 0] [0 4]] (REQUEST)
s 0.523570635 _3_ MAC  --- 0 ARP 86 [0 ffffffff 3 806] ------- [REQUEST 3/3 0/4]
r 0.524259360 _4_ MAC  --- 0 ARP 28 [0 ffffffff 3 806] ------- [REQUEST 3/3 0/4]
r 0.524259418 _2_ MAC  --- 0 ARP 28 [0 ffffffff 3 806] ------- [REQUEST 3/3 0/4]
s 0.524669360 _4_ MAC  --- 0 RTS 44 [52e 3 4 0] 
r 0.525022084 _3_ MAC  --- 0 RTS 44 [52e 3 4 0] 
s 0.525032084 _3_ MAC  --- 0 CTS 38 [3f4 4 0 0] 
r 0.525336809 _4_ MAC  --- 0 CTS 38 [3f4 4 0 0] 
s 0.525346809 _4_ MAC  --- 0 ARP 86 [13a 3 4 806] ------- [REPLY 4/4 3/3]
r 0.526035533 _3_ MAC  --- 0 ARP 28 [13a 3 4 806] ------- [REPLY 4/4 3/3]
s 0.526045533 _3_ MAC  --- 0 ACK 38 [0 4 0 0] 
r 0.526350257 _4_ MAC  --- 0 ACK 38 [0 4 0 0] 
s 0.526639533 _3_ MAC  --- 0 RTS 44 [5ae 4 3 0] 
r 0.526992257 _4_ MAC  --- 0 RTS 44 [5ae 4 3 0] 
s 0.527002257 _4_ MAC  --- 0 CTS 38 [474 3 0 0] 
r 0.527306982 _3_ MAC  --- 0 CTS 38 [474 3 0 0] 
s 0.527316982 _3_ MAC  --- 0 AODV 102 [13a 4 3 800] ------- [3:255 0:255 30 4] [0x4 1 [3 4] 10.000000] (REPLY)
r 0.528133706 _4_ MAC  --- 0 AODV 44 [13a 4 3 800] ------- [3:255 0:255 30 4] [0x4 1 [3 4] 10.000000] (REPLY)
s 0.528143706 _4_ MAC  --- 0 ACK 38 [0 3 0 0] 
r 0.528158706 _4_ RTR  --- 0 AODV 44 [13a 4 3 800] ------- [3:255 0:255 30 4] [0x4 1 [3 4] 10.000000] (REPLY)
f 0.528158706 _4_ RTR  --- 0 AODV 44 [13a 4 3 800] ------- [3:255 0:255 29 5] [0x4 2 [3 4] 10.000000] (REPLY)
r 0.528448430 _3_ MAC  --- 0 ACK 38 [0 3 0 0] 
s 0.528977706 _4_ MAC  --- 0 ARP 86 [0 ffffffff 4 806] ------- [REQUEST 4/4 0/5]
r 0.529666430 _3_ MAC  --- 0 ARP 28 [0 ffffffff 4 806] ------- [REQUEST 4/4 0/5]
r 0.529666442 _5_ MAC  --- 0 ARP 28 [0 ffffffff 4 806] ------- [REQUEST 4/4 0/5]
s 0.529921442 _5_ MAC  --- 0 RTS 44 [52e 4 5 0] 
r 0.530274178 _4_ MAC  --- 0 RTS 44 [52e 4 5 0] 
s 0.530284178 _4_ MAC  --- 0 CTS 38 [3f4 5 0 0] 
r 0.530588914 _5_ MAC  --- 0 CTS 38 [3f4 5 0 0] 
s 0.530598914 _5_ MAC  --- 0 ARP 86 [13a 4 5 806] ------- [REPLY 5/5 4/4]
r 0.531287650 _4_ MAC  --- 0 ARP 28 [13a 4 5 806] ------- [REPLY 5/5 4/4]
s 0.531297650 _4_ MAC  --- 0 ACK 38 [0 5 0 0] 
r 0.531602386 _5_ MAC  --- 0 ACK 38 [0 5 0 0] 
s 0.531771650 _4_ MAC  --- 0 RTS 44 [5ae 5 4 0] 
r 0.532124386 _5_ MAC  --- 0 RTS 44 [5ae 5 4 0] 
s 0.532134386 _5_ MAC  --- 0 CTS 38 [474 4 0 0] 
r 0.532439122 _4_ MAC  --- 0 CTS 38 [474 4 0 0] 
s 0.532449122 _4_ MAC  --- 0 AODV 102 [13a 5 4 800] ------- [3:255 0:255 29 5] [0x4 2 [3 4] 10.000000] (REPLY)
r 0.533265858 _5_ MAC  --- 0 AODV 44 [13a 5 4 800] ------- [3:255 0:255 29 5] [0x4 2 [3 4] 10.000000] (REPLY)
s 0.533275858 _5_ MAC  --- 0 ACK 38 [0 4 0 0] 
r 0.533290858 _5_ RTR  --- 0 AODV 44 [13a 5 4 800] ------- [3:255 0:255 29 5] [0x4 2 [3 4] 10.000000] (REPLY)
f 0.533290858 _5_ RTR  --- 0 AODV 44 [13a 5 4 800] ------- [3:255 0:255 28 6] [0x4 3 [3 4] 10.000000] (REPLY)
r 0.533580594 _4_ MAC  --- 0 ACK 38 [0 4 0 0] 
s 0.533729858 _5_ MAC  --- 0 ARP 86 [0 ffffffff 5 806] ------- [REQUEST 5/5 0/6]
r 0.534418565 _6_ MAC  --- 0 ARP 28 [0 ffffffff 5 806] ------- [REQUEST 5/5 0/6]
r 0.534418594 _4_ MAC  --- 0 ARP 28 [0 ffffffff 5 806] ------- [REQUEST 5/5 0/6]
s 0.534913565 _6_ MAC  --- 0 RTS 44 [52e 5 6 0] 
r 0.535266272 _5_ MAC  --- 0 RTS 44 [52e 5 6 0] 
s 0.535276272 _5_ MAC  --- 0 CTS 38 [3f4 6 0 0] 
r 0.535580978 _6_ MAC  --- 0 CTS 38 [3f4 6 0 0] 
s 0.535590978 _6_ MAC  --- 0 ARP 86 [13a 5 6 806] ------- [REPLY 6/6 5/5]
r 0.536279685 _5_ MAC  --- 0 ARP 28 [13a 5 6 806] ------- [REPLY 6/6 5/5]
s 0.536289685 _5_ MAC  --- 0 ACK 38 [0 6 0 0] 
r 0.536594392 _6_ MAC  --- 0 ACK 38 [0 6 0 0] 
s 0.536823685 _5_ MAC  --- 0 RTS 44 [5ae 6 5 0] 
r 0.537176392 _6_ MAC  --- 0 RTS 44 [5ae 6 5 0] 
s 0.537186392 _6_ MAC  --- 0 CTS 38 [474 5 0 0] 
r 0.537491098 _5_ MAC  --- 0 CTS 38 [474 5 0 0] 
s 0.537501098 _5_ MAC  --- 0 AODV 102 [13a 6 5 800] ------- [3:255 0:255 28 6] [0x4 3 [3 4] 10.000000] (REPLY)
r 0.538317805 _6_ MAC  --- 0 AODV 44 [13a 6 5 800] ------- [3:255 0:255 28 6] [0x4 3 [3 4] 10.000000] (REPLY)
s 0.538327805 _6_ MAC  --- 0 ACK 38 [0 5 0 0] 
r 0.538342805 _6_ RTR  --- 0 AODV 44 [13a 6 5 800] ------- [3:255 0:255 28 6] [0x4 3 [3 4] 10.000000] (REPLY)
f 0.538342805 _6_ RTR  --- 0 AODV 44 [13a 6 5 800] ------- [3:255 0:255 27 0] [0x4 4 [3 4] 10.000000] (REPLY)
r 0.538632511 _5_ MAC  --- 0 ACK 38 [0 5 0 0] 
s 0.539101805 _6_ MAC  --- 0 ARP 86 [0 ffffffff 6 806] ------- [REQUEST 6/6 0/0]
r 0.539790466 _0_ MAC  --- 0 ARP 28 [0 ffffffff 6 806] ------- [REQUEST 6/6 0/0]
r 0.539790511 _5_ MAC  --- 0 ARP 28 [0 ffffffff 6 806] ------- [REQUEST 6/6 0/0]
s 0.540205466 _0_ MAC  --- 0 RTS 44 [52e 6 0 0] 
r 0.540558127 _6_ MAC  --- 0 RTS 44 [52e 6 0 0] 
s 0.540568127 _6_ MAC  --- 0 CTS 38 [3f4 0 0 0] 
r 0.540872788 _0_ MAC  --- 0 CTS 38 [3f4 0 0 0] 
s 0.540882788 _0_ MAC  --- 0 ARP 86 [13a 6 0 806] ------- [REPLY 0/0 6/6]
r 0.541571449 _6_ MAC  --- 0 ARP 28 [13a 6 0 806] ------- [REPLY 0/0 6/6]
s 0.541581449 _6_ MAC  --- 0 ACK 38 [0 0 0 0] 
r 0.541886110 _0_ MAC  --- 0 ACK 38 [0 0 0 0] 
s 0.542115449 _6_ MAC  --- 0 RTS 44 [5ae 0 6 0] 
r 0.542468110 _0_ MAC  --- 0 RTS 44 [5ae 0 6 0] 
s 0.542478110 _0_ MAC  --- 0 CTS 38 [474 6 0 0] 
r 0.542782771 _6_ MAC  --- 0 CTS 38 [474 6 0 0] 
s 0.542792771 _6_ MAC  --- 0 AODV 102 [13a 0 6 800] ------- [3:255 0:255 27 0] [0x4 4 [3 4] 10.000000] (REPLY)
r 0.543609432 _0_ MAC  --- 0 AODV 44 [13a 0 6 800] ------- [3:255 0:255 27 0] [0x4 4 [3 4] 10.000000] (REPLY)
s 0.543619432 _0_ MAC  --- 0 ACK 38 [0 6 0 0] 
r 0.543634432 _0_ RTR  --- 0 AODV 44 [13a 0 6 800] ------- [3:255 0:255 27 0] [0x4 4 [3 4] 10.000000] (REPLY)
s 0.543634432 _0_ RTR  --- 0 tcp 40 [0 0 0 0] ------- [0:0 3:0 30 6] [0 0] 0 0
r 0.543924093 _6_ MAC  --- 0 ACK 38 [0 6 0 0] 
s 0.544273432 _0_ MAC  --- 0 RTS 44 [58e 6 0 0] 
r 0.544626093 _6_ MAC  --- 0 RTS 44 [58e 6 0 0] 
s 0.544636093 _6_ MAC  --- 0 CTS 38 [454 0 0 0] 
r 0.544940754 _0_ MAC  --- 0 CTS 38 [454 0 0 0] 
s 0.544950754 _0_ MAC  --- 0 tcp 98 [13a 6 0 800] ------- [0:0 3:0 30 6] [0 0] 0 0
r 0.545735415 _6_ MAC  --- 0 tcp 40 [13a 6 0 800] ------- [0:0 3:0 30 6] [0 0] 1 0
s 0.545745415 _6_ MAC  --- 0 ACK 38 [0 0 0 0] 
r 0.545760415 _6_ RTR  --- 0 tcp 40 [13a 6 0 800] ------- [0:0 3:0 30 6] [0 0] 1 0
f 0.545760415 _6_ RTR  --- 0 tcp 40 [13a 6 0 800] ------- [0:0 3:0 29 5] [0 0] 1 0
r 0.546050076 _0_ MAC  --- 0 ACK 38 [0 0 0 0] 
s 0.546179415 _6_ MAC  --- 0 RTS 44 [58e 5 6 0] 
r 0.546532121 _5_ MAC  --- 0 RTS 44 [58e 5 6 0] 
s 0.546542121 _5_ MAC  --- 0 CTS 38 [454 6 0 0] 
r 0.546846828 _6_ MAC  --- 0 CTS 38 [454 6 0 0] 
s 0.546856828 _6_ MAC  --- 0 tcp 98 [13a 5 6 800] ------- [0:0 3:0 29 5] [0 0] 1 0
r 0.547641535 _5_ MAC  --- 0 tcp 40 [13a 5 6 800] ------- [0:0 3:0 29 5] [0 0] 2 0
s 0.547651535 _5_ MAC  --- 0 ACK 38 [0 6 0 0] 
r 0.547666535 _5_ RTR  --- 0 tcp 40 [13a 5 6 800] ------- [0:0 3:0 29 5] [0 0] 2 0
f 0.547666535 _5_ RTR  --- 0 tcp 40 [13a 5 6 800] ------- [0:0 3:0 28 4] [0 0] 2 0
r 0.547956241 _6_ MAC  --- 0 ACK 38 [0 6 0 0] 
s 0.548085535 _5_ MAC  --- 0 RTS 44 [58e 4 5 0] 
r 0.548438271 _4_ MAC  --- 0 RTS 44 [58e 4 5 0] 
s 0.548448271 _4_ MAC  --- 0 CTS 38 [454 5 0 0] 
r 0.548753007 _5_ MAC  --- 0 CTS 38 [454 5 0 0] 
s 0.548763007 _5_ MAC  --- 0 tcp 98 [13a 4 5 800] ------- [0:0 3:0 28 4] [0 0] 2 0
r 0.549547743 _4_ MAC  --- 0 tcp 40 [13a 4 5 800] ------- [0:0 3:0 28 4] [0 0] 3 0
s 0.549557743 _4_ MAC  --- 0 ACK 38 [0 5 0 0] 
r 0.549572743 _4_ RTR  --- 0 tcp 40 [13a 4 5 800] ------- [0:0 3:0 28 4] [0 0] 3 0
f 0.549572743 _4_ RTR  --- 0 tcp 40 [13a 4 5 800] ------- [0:0 3:0 27 3] [0 0] 3 0
r 0.549862479 _5_ MAC  --- 0 ACK 38 [0 5 0 0] 
s 0.550111743 _4_ MAC  --- 0 RTS 44 [58e 3 4 0] 
r 0.550464467 _3_ MAC  --- 0 RTS 44 [58e 3 4 0] 
s 0.550474467 _3_ MAC  --- 0 CTS 38 [454 4 0 0] 
r 0.550779192 _4_ MAC  --- 0 CTS 38 [454 4 0 0] 
s 0.550789192 _4_ MAC  --- 0 tcp 98 [13a 3 4 800] ------- [0:0 3:0 27 3] [0 0] 3 0
r 0.551573916 _3_ MAC  --- 0 tcp 40 [13a 3 4 800] ------- [0:0 3:0 27 3] [0 0] 4 0
s 0.551583916 _3_ MAC  --- 0 ACK 38 [0 4 0 0] 
r 0.551598916 _3_ AGT  --- 0 tcp 40 [13a 3 4 800] ------- [0:0 3:0 27 3] [0 0] 4 0
s 0.551598916 _3_ AGT  --- 1 ack 40 [0 0 0 0] ------- [3:0 0:0 32 0] [0 0] 0 0
r 0.551598916 _3_ RTR  --- 1 ack 40 [0 0 0 0] ------- [3:0 0:0 32 0] [0 0] 0 0
s 0.551598916 _3_ RTR  --- 1 ack 40 [0 0 0 0] ------- [3:0 0:0 30 4] [0 0] 0 0
r 0.551888640 _4_ MAC  --- 0 ACK 38 [0 4 0 0] 
s 0.552457916 _3_ MAC  --- 0 RTS 44 [58e 4 3 0] 
r 0.552810640 _4_ MAC  --- 0 RTS 44 [58e 4 3 0] 
s 0.552820640 _4_ MAC  --- 0 CTS 38 [454 3 0 0] 
r 0.553125365 _3_ MAC  --- 0 CTS 38 [454 3 0 0] 
s 0.553135365 _3_ MAC  --- 1 ack 98 [13a 4 3 800] ------- [3:0 0:0 30 4] [0 0] 0 0
r 0.553920089 _4_ MAC  --- 1 ack 40 [13a 4 3 800] ------- [3:0 0:0 30 4] [0 0] 1 0
s 0.553930089 _4_ MAC  --- 0 ACK 38 [0 3 0 0] 
r 0.553945089 _4_ RTR  --- 1 ack 40 [13a 4 3 800] ------- [3:0 0:0 30 4] [0 0] 1 0
f 0.553945089 _4_ RTR  --- 1 ack 40 [13a 4 3 800] ------- [3:0 0:0 29 5] [0 0] 1 0
r 0.554234813 _3_ MAC  --- 0 ACK 38 [0 3 0 0] 
s 0.554484089 _4_ MAC  --- 0 RTS 44 [58e 5 4 0] 
r 0.554836825 _5_ MAC  --- 0 RTS 44 [58e 5 4 0] 
s 0.554846825 _5_ MAC  --- 0 CTS 38 [454 4 0 0] 
r 0.555151561 _4_ MAC  --- 0 CTS 38 [454 4 0 0] 
s 0.555161561 _4_ MAC  --- 1 ack 98 [13a 5 4 800] ------- [3:0 0:0 29 5] [0 0] 1 0
r 0.555946297 _5_ MAC  --- 1 ack 40 [13a 5 4 800] ------- [3:0 0:0 29 5] [0 0] 2 0
s 0.555956297 _5_ MAC  --- 0 ACK 38 [0 4 0 0] 
r 0.555971297 _5_ RTR  --- 1 ack 40 [13a 5 4 800] ------- [3:0 0:0 29 5] [0 0] 2 0
f 0.555971297 _5_ RTR  --- 1 ack 40 [13a 5 4 800] ------- [3:0 0:0 28 6] [0 0] 2 0
r 0.556261033 _4_ MAC  --- 0 ACK 38 [0 4 0 0] 
s 0.556370297 _5_ MAC  --- 0 RTS 44 [58e 6 5 0] 
r 0.556723004 _6_ MAC  --- 0 RTS 44 [58e 6 5 0] 
s 0.556733004 _6_ MAC  --- 0 CTS 38 [454 5 0 0] 
r 0.557037710 _5_ MAC  --- 0 CTS 38 [454 5 0 0] 
s 0.557047710 _5_ MAC  --- 1 ack 98 [13a 6 5 800] ------- [3:0 0:0 28 6] [0 0] 2 0
r 0.557832417 _6_ MAC  --- 1 ack 40 [13a 6 5 800] ------- [3:0 0:0 28 6] [0 0] 3 0
s 0.557842417 _6_ MAC  --- 0 ACK 38 [0 5 0 0] 
r 0.557857417 _6_ RTR  --- 1 ack 40 [13a 6 5 800] ------- [3:0 0:0 28 6] [0 0] 3 0
f 0.557857417 _6_ RTR  --- 1 ack 40 [13a 6 5 800] ------- [3:0 0:0 27 0] [0 0] 3 0
r 0.558147124 _5_ MAC  --- 0 ACK 38 [0 5 0 0] 
s 0.558536417 _6_ MAC  --- 0 RTS 44 [58e 0 6 0] 
r 0.558889078 _0_ MAC  --- 0 RTS 44 [58e 0 6 0] 
s 0.558899078 _0_ MAC  --- 0 CTS 38 [454 6 0 0] 
r 0.559203739 _6_ MAC  --- 0 CTS 38 [454 6 0 0] 
s 0.559213739 _6_ MAC  --- 1 ack 98 [13a 0 6 800] ------- [3:0 0:0 27 0] [0 0] 3 0
r 0.559998400 _0_ MAC  --- 1 ack 40 [13a 0 6 800] ------- [3:0 0:0 27 0] [0 0] 4 0
s 0.560008400 _0_ MAC  --- 0 ACK 38 [0 6 0 0] 
r 0.560023400 _0_ AGT  --- 1 ack 40 [13a 0 6 800] ------- [3:0 0:0 27 0] [0 0] 4 0
s 0.560023400 _0_ AGT  --- 2 tcp 1540 [0 0 0 0] ------- [0:0 3:0 32 0] [1 0] 0 0
r 0.560023400 _0_ RTR  --- 2 tcp 1540 [0 0 0 0] ------- [0:0 3:0 32 0] [1 0] 0 0
s 0.560023400 _0_ AGT  --- 3 tcp 1540 [0 0 0 0] ------- [0:0 3:0 32 0] [2 0] 0 0
r 0.560023400 _0_ RTR  --- 3 tcp 1540 [0 0 0 0] ------- [0:0 3:0 32 0] [2 0] 0 0
s 0.560023400 _0_ RTR  --- 2 tcp 1540 [0 0 0 0] ------- [0:0 3:0 30 6] [1 0] 0 0
s 0.560023400 _0_ RTR  --- 3 tcp 1540 [0 0 0 0] ------- [0:0 3:0 30 6] [2 0] 0 0
r 0.560313061 _6_ MAC  --- 0 ACK 38 [0 6 0 0] 
s 0.560642400 _0_ MAC  --- 0 RTS 44 [346e 6 0 0] 
r 0.560995061 _6_ MAC  --- 0 RTS 44 [346e 6 0 0] 
s 0.561005061 _6_ MAC  --- 0 CTS 38 [3334 0 0 0] 
r 0.561309722 _0_ MAC  --- 0 CTS 38 [3334 0 0 0] 
s 0.561319722 _0_ MAC  --- 2 tcp 1598 [13a 6 0 800] ------- [0:0 3:0 30 6] [1 0] 0 0
r 0.574104383 _6_ MAC  --- 2 tcp 1540 [13a 6 0 800] ------- [0:0 3:0 30 6] [1 0] 1 0
s 0.574114383 _6_ MAC  --- 0 ACK 38 [0 0 0 0] 
r 0.574129383 _6_ RTR  --- 2 tcp 1540 [13a 6 0 800] ------- [0:0 3:0 30 6] [1 0] 1 0
f 0.574129383 _6_ RTR  --- 2 tcp 1540 [13a 6 0 800] ------- [0:0 3:0 29 5] [1 0] 1 0
r 0.574419044 _0_ MAC  --- 0 ACK 38 [0 0 0 0] 
s 0.574748383 _6_ MAC  --- 0 RTS 44 [346e 5 6 0] 
r 0.575101090 _5_ MAC  --- 0 RTS 44 [346e 5 6 0] 
s 0.575111090 _5_ MAC  --- 0 CTS 38 [3334 6 0 0] 
r 0.575415796 _6_ MAC  --- 0 CTS 38 [3334 6 0 0] 
s 0.575425796 _6_ MAC  --- 2 tcp 1598 [13a 5 6 800] ------- [0:0 3:0 29 5] [1 0] 1 0
r 0.588210503 _5_ MAC  --- 2 tcp 1540 [13a 5 6 800] ------- [0:0 3:0 29 5] [1 0] 2 0
s 0.588220503 _5_ MAC  --- 0 ACK 38 [0 6 0 0] 
r 0.588235503 _5_ RTR  --- 2 tcp 1540 [13a 5 6 800] ------- [0:0 3:0 29 5] [1 0] 2 0
f 0.588235503 _5_ RTR  --- 2 tcp 1540 [13a 5 6 800] ------- [0:0 3:0 28 4] [1 0] 2 0
r 0.588525210 _6_ MAC  --- 0 ACK 38 [0 6 0 0] 
s 0.588574503 _5_ MAC  --- 0 RTS 44 [346e 4 5 0] 
r 0.588927239 _4_ MAC  --- 0 RTS 44 [346e 4 5 0] 
s 0.588937239 _4_ MAC  --- 0 CTS 38 [3334 5 0 0] 
r 0.589241975 _5_ MAC  --- 0 CTS 38 [3334 5 0 0] 
s 0.589251975 _5_ MAC  --- 2 tcp 1598 [13a 4 5 800] ------- [0:0 3:0 28 4] [1 0] 2 0
r 0.602036711 _4_ MAC  --- 2 tcp 1540 [13a 4 5 800] ------- [0:0 3:0 28 4] [1 0] 3 0
s 0.602046711 _4_ MAC  --- 0 ACK 38 [0 5 0 0] 
r 0.602061711 _4_ RTR  --- 2 tcp 1540 [13a 4 5 800] ------- [0:0 3:0 28 4] [1 0] 3 0
f 0.602061711 _4_ RTR  --- 2 tcp 1540 [13a 4 5 800] ------- [0:0 3:0 27 3] [1 0] 3 0
r 0.602351447 _5_ MAC  --- 0 ACK 38 [0 5 0 0] 
s 0.602460711 _4_ MAC  --- 0 RTS 44 [346e 3 4 0] 
r 0.602813435 _3_ MAC  --- 0 RTS 44 [346e 3 4 0] 
s 0.602823435 _3_ MAC  --- 0 CTS 38 [3334 4 0 0] 
r 0.603128160 _4_ MAC  --- 0 CTS 38 [3334 4 0 0] 
s 0.603138160 _4_ MAC  --- 2 tcp 1598 [13a 3 4 800] ------- [0:0 3:0 27 3] [1 0] 3 0
r 0.615922884 _3_ MAC  --- 2 tcp 1540 [13a 3 4 800] ------- [0:0 3:0 27 3] [1 0] 4 0
s 0.615932884 _3_ MAC  --- 0 ACK 38 [0 4 0 0] 
r 0.615947884 _3_ AGT  --- 2 tcp 1540 [13a 3 4 800] ------- [0:0 3:0 27 3] [1 0] 4 0
s 0.615947884 _3_ AGT  --- 4 ack 40 [0 0 0 0] ------- [3:0 0:0 32 0] [1 0] 0 0
r 0.615947884 _3_ RTR  --- 4 ack 40 [0 0 0 0] ------- [3:0 0:0 32 0] [1 0] 0 0
s 0.615947884 _3_ RTR  --- 4 ack 40 [0 0 0 0] ------- [3:0 0:0 30 4] [1 0] 0 0
r 0.616237609 _4_ MAC  --- 0 ACK 38 [0 4 0 0] 
s 0.616446884 _3_ MAC  --- 0 RTS 44 [58e 4 3 0] 
s 0.616537978 _0_ MAC  --- 0 RTS 44 [346e 6 0 0] 
r 0.616799609 _4_ MAC  --- 0 RTS 44 [58e 4 3 0] 
r 0.616890639 _6_ MAC  --- 0 RTS 44 [346e 6 0 0] 
s 0.616900639 _6_ MAC  --- 0 CTS 38 [3334 0 0 0] 
r 0.617205300 _0_ MAC  --- 0 CTS 38 [3334 0 0 0] 
s 0.617215300 _0_ MAC  --- 3 tcp 1598 [13a 6 0 800] ------- [0:0 3:0 30 6] [2 0] 0 0
s 0.618066884 _3_ MAC  --- 0 RTS 44 [58e 4 3 0] 
D 0.618067609 _4_ MAC  COL 0 RTS 44 [58e 4 3 0] 
s 0.621066884 _3_ MAC  --- 0 RTS 44 [58e 4 3 0] 
D 0.621067609 _4_ MAC  COL 0 RTS 44 [58e 4 3 0] 
s 0.622666884 _3_ MAC  --- 0 RTS 44 [58e 4 3 0] 
D 0.622667609 _4_ MAC  COL 0 RTS 44 [58e 4 3 0] 
r 0.629999961 _6_ MAC  --- 3 tcp 1540 [13a 6 0 800] ------- [0:0 3:0 30 6] [2 0] 1 0
s 0.630009961 _6_ MAC  --- 0 ACK 38 [0 0 0 0] 
r 0.630024961 _6_ RTR  --- 3 tcp 1540 [13a 6 0 800] ------- [0:0 3:0 30 6] [2 0] 1 0
f 0.630024961 _6_ RTR  --- 3 tcp 1540 [13a 6 0 800] ------- [0:0 3:0 29 5] [2 0] 1 0
r 0.630314622 _0_ MAC  --- 0 ACK 38 [0 0 0 0] 
s 0.630383961 _6_ MAC  --- 0 RTS 44 [346e 5 6 0] 
r 0.630736668 _5_ MAC  --- 0 RTS 44 [346e 5 6 0] 
s 0.630746668 _5_ MAC  --- 0 CTS 38 [3334 6 0 0] 
r 0.631051375 _6_ MAC  --- 0 CTS 38 [3334 6 0 0] 
s 0.631061375 _6_ MAC  --- 3 tcp 1598 [13a 5 6 800] ------- [0:0 3:0 29 5] [2 0] 1 0
s 0.631685972 _3_ MAC  --- 0 RTS 44 [58e 4 3 0] 
D 0.631686697 _4_ MAC  COL 0 RTS 44 [58e 4 3 0] 
s 0.641365972 _3_ MAC  --- 0 RTS 44 [58e 4 3 0] 
D 0.641366697 _4_ MAC  COL 0 RTS 44 [58e 4 3 0] 
r 0.643846081 _5_ MAC  --- 3 tcp 1540 [13a 5 6 800] ------- [0:0 3:0 29 5] [2 0] 2 0
s 0.643856081 _5_ MAC  --- 0 ACK 38 [0 6 0 0] 
r 0.643871081 _5_ RTR  --- 3 tcp 1540 [13a 5 6 800] ------- [0:0 3:0 29 5] [2 0] 2 0
f 0.643871081 _5_ RTR  --- 3 tcp 1540 [13a 5 6 800] ------- [0:0 3:0 28 4] [2 0] 2 0
r 0.644160788 _6_ MAC  --- 0 ACK 38 [0 6 0 0] 
s 0.644470081 _5_ MAC  --- 0 RTS 44 [346e 4 5 0] 
r 0.644822817 _4_ MAC  --- 0 RTS 44 [346e 4 5 0] 
s 0.644832817 _4_ MAC  --- 0 CTS 38 [3334 5 0 0] 
r 0.645137553 _5_ MAC  --- 0 CTS 38 [3334 5 0 0] 
s 0.645147553 _5_ MAC  --- 3 tcp 1598 [13a 4 5 800] ------- [0:0 3:0 28 4] [2 0] 2 0
r 0.657932289 _4_ MAC  --- 3 tcp 1540 [13a 4 5 800] ------- [0:0 3:0 28 4] [2 0] 3 0
s 0.657942289 _4_ MAC  --- 0 ACK 38 [0 5 0 0] 
r 0.657957289 _4_ RTR  --- 3 tcp 1540 [13a 4 5 800] ------- [0:0 3:0 28 4] [2 0] 3 0
f 0.657957289 _4_ RTR  --- 3 tcp 1540 [13a 4 5 800] ------- [0:0 3:0 27 3] [2 0] 3 0
r 0.658247025 _5_ MAC  --- 0 ACK 38 [0 5 0 0] 
s 0.658536289 _4_ MAC  --- 0 RTS 44 [346e 3 4 0] 
r 0.658889014 _3_ MAC  --- 0 RTS 44 [346e 3 4 0] 
s 0.658899014 _3_ MAC  --- 0 CTS 38 [3334 4 0 0] 
r 0.659203738 _4_ MAC  --- 0 CTS 38 [3334 4 0 0] 
s 0.659213738 _4_ MAC  --- 3 tcp 1598 [13a 3 4 800] ------- [0:0 3:0 27 3] [2 0] 3 0
r 0.671998462 _3_ MAC  --- 3 tcp 1540 [13a 3 4 800] ------- [0:0 3:0 27 3] [2 0] 4 0
s 0.672008462 _3_ MAC  --- 0 ACK 38 [0 4 0 0] 
r 0.672023462 _3_ AGT  --- 3 tcp 1540 [13a 3 4 800] ------- [0:0 3:0 27 3] [2 0] 4 0
s 0.672023462 _3_ AGT  --- 5 ack 40 [0 0 0 0] ------- [3:0 0:0 32 0] [2 0] 0 0
r 0.672023462 _3_ RTR  --- 5 ack 40 [0 0 0 0] ------- [3:0 0:0 32 0] [2 0] 0 0
s 0.672023462 _3_ RTR  --- 5 ack 40 [0 0 0 0] ------- [3:0 0:0 30 4] [2 0] 0 0
r 0.672313187 _4_ MAC  --- 0 ACK 38 [0 4 0 0] 
s 0.680362462 _3_ MAC  --- 0 RTS 44 [58e 4 3 0] 
r 0.680715187 _4_ MAC  --- 0 RTS 44 [58e 4 3 0] 
s 0.680725187 _4_ MAC  --- 0 CTS 38 [454 3 0 0] 
r 0.681029911 _3_ MAC  --- 0 CTS 38 [454 3 0 0] 
s 0.681039911 _3_ MAC  --- 4 ack 98 [13a 4 3 800] ------- [3:0 0:0 30 4] [1 0] 0 0
r 0.681824635 _4_ MAC  --- 4 ack 40 [13a 4 3 800] ------- [3:0 0:0 30 4] [1 0] 1 0
s 0.681834635 _4_ MAC  --- 0 ACK 38 [0 3 0 0] 
r 0.681849635 _4_ RTR  --- 4 ack 40 [13a 4 3 800] ------- [3:0 0:0 30 4] [1 0] 1 0
f 0.681849635 _4_ RTR  --- 4 ack 40 [13a 4 3 800] ------- [3:0 0:0 29 5] [1 0] 1 0
r 0.682139360 _3_ MAC  --- 0 ACK 38 [0 3 0 0] 
s 0.682228635 _4_ MAC  --- 0 RTS 44 [58e 5 4 0] 
r 0.682581372 _5_ MAC  --- 0 RTS 44 [58e 5 4 0] 
s 0.682591372 _5_ MAC  --- 0 CTS 38 [454 4 0 0] 
r 0.682896108 _4_ MAC  --- 0 CTS 38 [454 4 0 0] 
s 0.682906108 _4_ MAC  --- 4 ack 98 [13a 5 4 800] ------- [3:0 0:0 29 5] [1 0] 1 0
r 0.683690844 _5_ MAC  --- 4 ack 40 [13a 5 4 800] ------- [3:0 0:0 29 5] [1 0] 2 0
s 0.683700844 _5_ MAC  --- 0 ACK 38 [0 4 0 0] 
r 0.683715844 _5_ RTR  --- 4 ack 40 [13a 5 4 800] ------- [3:0 0:0 29 5] [1 0] 2 0
f 0.683715844 _5_ RTR  --- 4 ack 40 [13a 5 4 800] ------- [3:0 0:0 28 6] [1 0] 2 0
r 0.684005580 _4_ MAC  --- 0 ACK 38 [0 4 0 0] 
s 0.684174844 _5_ MAC  --- 0 RTS 44 [58e 6 5 0] 
r 0.684527550 _6_ MAC  --- 0 RTS 44 [58e 6 5 0] 
s 0.684537550 _6_ MAC  --- 0 CTS 38 [454 5 0 0] 
r 0.684842257 _5_ MAC  --- 0 CTS 38 [454 5 0 0] 
s 0.684852257 _5_ MAC  --- 4 ack 98 [13a 6 5 800] ------- [3:0 0:0 28 6] [1 0] 2 0
r 0.685636964 _6_ MAC  --- 4 ack 40 [13a 6 5 800] ------- [3:0 0:0 28 6] [1 0] 3 0
s 0.685646964 _6_ MAC  --- 0 ACK 38 [0 5 0 0] 
r 0.685661964 _6_ RTR  --- 4 ack 40 [13a 6 5 800] ------- [3:0 0:0 28 6] [1 0] 3 0
f 0.685661964 _6_ RTR  --- 4 ack 40 [13a 6 5 800] ------- [3:0 0:0 27 0] [1 0] 3 0
r 0.685951670 _5_ MAC  --- 0 ACK 38 [0 5 0 0] 
s 0.686100964 _6_ MAC  --- 0 RTS 44 [58e 0 6 0] 
r 0.686453625 _0_ MAC  --- 0 RTS 44 [58e 0 6 0] 
s 0.686463625 _0_ MAC  --- 0 CTS 38 [454 6 0 0] 
s 0.686471561 _3_ MAC  --- 0 RTS 44 [58e 4 3 0] 
r 0.686768286 _6_ MAC  --- 0 CTS 38 [454 6 0 0] 
s 0.686778286 _6_ MAC  --- 4 ack 98 [13a 0 6 800] ------- [3:0 0:0 27 0] [1 0] 3 0
D 0.686824286 _4_ MAC  COL 0 RTS 44 [58e 4 3 0] 
s 0.687271561 _3_ MAC  --- 0 RTS 44 [58e 4 3 0] 
r 0.687562947 _0_ MAC  --- 4 ack 40 [13a 0 6 800] ------- [3:0 0:0 27 0] [1 0] 4 0
s 0.687572947 _0_ MAC  --- 0 ACK 38 [0 6 0 0] 
r 0.687587947 _0_ AGT  --- 4 ack 40 [13a 0 6 800] ------- [3:0 0:0 27 0] [1 0] 4 0
s 0.687587947 _0_ AGT  --- 6 tcp 1540 [0 0 0 0] ------- [0:0 3:0 32 0] [3 0] 0 0
r 0.687587947 _0_ RTR  --- 6 tcp 1540 [0 0 0 0] ------- [0:0 3:0 32 0] [3 0] 0 0
s 0.687587947 _0_ AGT  --- 7 tcp 1540 [0 0 0 0] ------- [0:0 3:0 32 0] [4 0] 0 0
r 0.687587947 _0_ RTR  --- 7 tcp 1540 [0 0 0 0] ------- [0:0 3:0 32 0] [4 0] 0 0
s 0.687587947 _0_ RTR  --- 6 tcp 1540 [0 0 0 0] ------- [0:0 3:0 30 6] [3 0] 0 0
s 0.687587947 _0_ RTR  --- 7 tcp 1540 [0 0 0 0] ------- [0:0 3:0 30 6] [4 0] 0 0
r 0.687624286 _4_ MAC  --- 0 RTS 44 [58e 4 3 0] 
r 0.687877608 _6_ MAC  --- 0 ACK 38 [0 6 0 0] 
s 0.688126947 _0_ MAC  --- 0 RTS 44 [346e 6 0 0] 
r 0.688479608 _6_ MAC  --- 0 RTS 44 [346e 6 0 0] 
s 0.688489608 _6_ MAC  --- 0 CTS 38 [3334 0 0 0] 
r 0.688794269 _0_ MAC  --- 0 CTS 38 [3334 0 0 0] 
s 0.688804269 _0_ MAC  --- 6 tcp 1598 [13a 6 0 800] ------- [0:0 3:0 30 6] [3 0] 0 0
s 0.688831561 _3_ MAC  --- 0 RTS 44 [58e 4 3 0] 
D 0.688832286 _4_ MAC  COL 0 RTS 44 [58e 4 3 0] 
s 0.693551561 _3_ MAC  --- 0 RTS 44 [58e 4 3 0] 
D 0.693552286 _4_ MAC  COL 0 RTS 44 [58e 4 3 0] 
r 0.701588930 _6_ MAC  --- 6 tcp 1540 [13a 6 0 800] ------- [0:0 3:0 30 6] [3 0] 1 0
s 0.701598930 _6_ MAC  --- 0 ACK 38 [0 0 0 0] 
r 0.701613930 _6_ RTR  --- 6 tcp 1540 [13a 6 0 800] ------- [0:0 3:0 30 6] [3 0] 1 0
f 0.701613930 _6_ RTR  --- 6 tcp 1540 [13a 6 0 800] ------- [0:0 3:0 29 5] [3 0] 1 0
r 0.701903591 _0_ MAC  --- 0 ACK 38 [0 0 0 0] 
s 0.701911561 _3_ MAC  --- 0 RTS 44 [58e 4 3 0] 
s 0.702012930 _6_ MAC  --- 0 RTS 44 [346e 5 6 0] 
r 0.702264286 _4_ MAC  --- 0 RTS 44 [58e 4 3 0] 
D 0.702365636 _5_ MAC  COL 0 RTS 44 [346e 5 6 0] 
s 0.703952930 _6_ MAC  --- 0 RTS 44 [346e 5 6 0] 
r 0.704305636 _5_ MAC  --- 0 RTS 44 [346e 5 6 0] 
s 0.704315636 _5_ MAC  --- 0 CTS 38 [3334 6 0 0] 
r 0.704620343 _6_ MAC  --- 0 CTS 38 [3334 6 0 0] 
s 0.704630343 _6_ MAC  --- 6 tcp 1598 [13a 5 6 800] ------- [0:0 3:0 29 5] [3 0] 1 0
r 0.717415049 _5_ MAC  --- 6 tcp 1540 [13a 5 6 800] ------- [0:0 3:0 29 5] [3 0] 2 0
s 0.717425049 _5_ MAC  --- 0 ACK 38 [0 6 0 0] 
r 0.717440049 _5_ RTR  --- 6 tcp 1540 [13a 5 6 800] ------- [0:0 3:0 29 5] [3 0] 2 0
f 0.717440049 _5_ RTR  --- 6 tcp 1540 [13a 5 6 800] ------- [0:0 3:0 28 4] [3 0] 2 0
r 0.717729756 _6_ MAC  --- 0 ACK 38 [0 6 0 0] 
s 0.718219049 _5_ MAC  --- 0 RTS 44 [346e 4 5 0] 
r 0.718571786 _4_ MAC  --- 0 RTS 44 [346e 4 5 0] 
s 0.718581786 _4_ MAC  --- 0 CTS 38 [3334 5 0 0] 
r 0.718886522 _5_ MAC  --- 0 CTS 38 [3334 5 0 0] 
s 0.718896522 _5_ MAC  --- 6 tcp 1598 [13a 4 5 800] ------- [0:0 3:0 28 4] [3 0] 2 0
r 0.731681258 _4_ MAC  --- 6 tcp 1540 [13a 4 5 800] ------- [0:0 3:0 28 4] [3 0] 3 0
s 0.731691258 _4_ MAC  --- 0 ACK 38 [0 5 0 0] 
r 0.731706258 _4_ RTR  --- 6 tcp 1540 [13a 4 5 800] ------- [0:0 3:0 28 4] [3 0] 3 0
f 0.731706258 _4_ RTR  --- 6 tcp 1540 [13a 4 5 800] ------- [0:0 3:0 27 3] [3 0] 3 0
r 0.731995994 _5_ MAC  --- 0 ACK 38 [0 5 0 0] 
s 0.732345258 _4_ MAC  --- 0 RTS 44 [346e 3 4 0] 
r 0.732697982 _3_ MAC  --- 0 RTS 44 [346e 3 4 0] 
s 0.732707982 _3_ MAC  --- 0 CTS 38 [3334 4 0 0] 
r 0.733012706 _4_ MAC  --- 0 CTS 38 [3334 4 0 0] 
s 0.733022706 _4_ MAC  --- 6 tcp 1598 [13a 3 4 800] ------- [0:0 3:0 27 3] [3 0] 3 0
r 0.745807431 _3_ MAC  --- 6 tcp 1540 [13a 3 4 800] ------- [0:0 3:0 27 3] [3 0] 4 0
s 0.745817431 _3_ MAC  --- 0 ACK 38 [0 4 0 0] 
r 0.745832431 _3_ AGT  --- 6 tcp 1540 [13a 3 4 800] ------- [0:0 3:0 27 3] [3 0] 4 0
s 0.745832431 _3_ AGT  --- 8 ack 40 [0 0 0 0] ------- [3:0 0:0 32 0] [3 0] 0 0
r 0.745832431 _3_ RTR  --- 8 ack 40 [0 0 0 0] ------- [3:0 0:0 32 0] [3 0] 0 0
s 0.745832431 _3_ RTR  --- 8 ack 40 [0 0 0 0] ------- [3:0 0:0 30 4] [3 0] 0 0
r 0.746122155 _4_ MAC  --- 0 ACK 38 [0 4 0 0] 
s 0.746682525 _0_ MAC  --- 0 RTS 44 [346e 6 0 0] 
r 0.747035186 _6_ MAC  --- 0 RTS 44 [346e 6 0 0] 
s 0.747045186 _6_ MAC  --- 0 CTS 38 [3334 0 0 0] 
r 0.747349847 _0_ MAC  --- 0 CTS 38 [3334 0 0 0] 
s 0.747359847 _0_ MAC  --- 7 tcp 1598 [13a 6 0 800] ------- [0:0 3:0 30 6] [4 0] 0 0
s 0.749911431 _3_ MAC  --- 0 RTS 44 [58e 4 3 0] 
D 0.749912155 _4_ MAC  COL 0 RTS 44 [58e 4 3 0] 
r 0.760144508 _6_ MAC  --- 7 tcp 1540 [13a 6 0 800] ------- [0:0 3:0 30 6] [4 0] 1 0
s 0.760154508 _6_ MAC  --- 0 ACK 38 [0 0 0 0] 
r 0.760169508 _6_ RTR  --- 7 tcp 1540 [13a 6 0 800] ------- [0:0 3:0 30 6] [4 0] 1 0
f 0.760169508 _6_ RTR  --- 7 tcp 1540 [13a 6 0 800] ------- [0:0 3:0 29 5] [4 0] 1 0
r 0.760459169 _0_ MAC  --- 0 ACK 38 [0 0 0 0] 
s 0.760548508 _6_ MAC  --- 0 RTS 44 [346e 5 6 0] 
r 0.760901214 _5_ MAC  --- 0 RTS 44 [346e 5 6 0] 
s 0.760911214 _5_ MAC  --- 0 CTS 38 [3334 6 0 0] 
r 0.761215921 _6_ MAC  --- 0 CTS 38 [3334 6 0 0] 
s 0.761225921 _6_ MAC  --- 7 tcp 1598 [13a 5 6 800] ------- [0:0 3:0 29 5] [4 0] 1 0
s 0.762230519 _3_ MAC  --- 0 RTS 44 [58e 4 3 0] 
D 0.762231243 _4_ MAC  COL 0 RTS 44 [58e 4 3 0] 
D 0.762900519 _3_ MAC  RET 0 RTS 44 [58e 4 3 0] 
D 0.762900519 _3_ RTR  CBK 5 ack 40 [13a 4 3 800] ------- [3:0 0:0 30 4] [2 0] 0 0
D 0.762900519 _3_ RTR  CBK 8 ack 40 [0 4 3 800] ------- [3:0 0:0 30 4] [3 0] 0 0
D 0.762900519 _3_ MAC  RET 5 ack 40 [13a 4 3 800] ------- [3:0 0:0 30 4] [2 0] 0 0
s 0.762900519 _3_ RTR  --- 0 AODV 32 [0 0 0 0] ------- [3:255 -1:255 1 0] [0x8 1 [0 0] 0.000000] (ERROR)
s 0.763195519 _3_ MAC  --- 0 AODV 90 [0 ffffffff 3 800] ------- [3:255 -1:255 1 0] [0x8 1 [0 0] 0.000000] (ERROR)
D 0.763196243 _4_ MAC  COL 0 AODV 90 [0 ffffffff 3 800] ------- [3:255 -1:255 1 0] [0x8 1 [0 0] 0.000000] (ERROR)
D 0.763196301 _2_ MAC  COL 0 AODV 90 [0 ffffffff 3 800] ------- [3:255 -1:255 1 0] [0x8 1 [0 0] 0.000000] (ERROR)
r 0.774010628 _5_ MAC  --- 7 tcp 1540 [13a 5 6 800] ------- [0:0 3:0 29 5] [4 0] 2 0
s 0.774020628 _5_ MAC  --- 0 ACK 38 [0 6 0 0] 
r 0.774035628 _5_ RTR  --- 7 tcp 1540 [13a 5 6 800] ------- [0:0 3:0 29 5] [4 0] 2 0
f 0.774035628 _5_ RTR  --- 7 tcp 1540 [13a 5 6 800] ------- [0:0 3:0 28 4] [4 0] 2 0
r 0.774325334 _6_ MAC  --- 0 ACK 38 [0 6 0 0] 
s 0.774534628 _5_ MAC  --- 0 RTS 44 [346e 4 5 0] 
r 0.774887364 _4_ MAC  --- 0 RTS 44 [346e 4 5 0] 
s 0.774897364 _4_ MAC  --- 0 CTS 38 [3334 5 0 0] 
r 0.775202100 _5_ MAC  --- 0 CTS 38 [3334 5 0 0] 
s 0.775212100 _5_ MAC  --- 7 tcp 1598 [13a 4 5 800] ------- [0:0 3:0 28 4] [4 0] 2 0
r 0.787996836 _4_ MAC  --- 7 tcp 1540 [13a 4 5 800] ------- [0:0 3:0 28 4] [4 0] 3 0
s 0.788006836 _4_ MAC  --- 0 ACK 38 [0 5 0 0] 
r 0.788021836 _4_ RTR  --- 7 tcp 1540 [13a 4 5 800] ------- [0:0 3:0 28 4] [4 0] 3 0
f 0.788021836 _4_ RTR  --- 7 tcp 1540 [13a 4 5 800] ------- [0:0 3:0 27 3] [4 0] 3 0
r 0.788311572 _5_ MAC  --- 0 ACK 38 [0 5 0 0] 
s 0.788760836 _4_ MAC  --- 0 RTS 44 [346e 3 4 0] 
r 0.789113560 _3_ MAC  --- 0 RTS 44 [346e 3 4 0] 
s 0.789123560 _3_ MAC  --- 0 CTS 38 [3334 4 0 0] 
r 0.789428285 _4_ MAC  --- 0 CTS 38 [3334 4 0 0] 
s 0.789438285 _4_ MAC  --- 7 tcp 1598 [13a 3 4 800] ------- [0:0 3:0 27 3] [4 0] 3 0
r 0.802223009 _3_ MAC  --- 7 tcp 1540 [13a 3 4 800] ------- [0:0 3:0 27 3] [4 0] 4 0
s 0.802233009 _3_ MAC  --- 0 ACK 38 [0 4 0 0] 
r 0.802248009 _3_ AGT  --- 7 tcp 1540 [13a 3 4 800] ------- [0:0 3:0 27 3] [4 0] 4 0
s 0.802248009 _3_ AGT  --- 9 ack 40 [0 0 0 0] ------- [3:0 0:0 32 0] [4 0] 0 0
r 0.802248009 _3_ RTR  --- 9 ack 40 [0 0 0 0] ------- [3:0 0:0 32 0] [4 0] 0 0
s 0.802248009 _3_ RTR  --- 0 AODV 48 [0 0 0 0] ------- [3:255 -1:255 6 0] [0x2 1 1 [0 5] [3 8]] (REQUEST)
r 0.802537733 _4_ MAC  --- 0 ACK 38 [0 4 0 0] 
s 0.802747009 _3_ MAC  --- 0 AODV 106 [0 ffffffff 3 800] ------- [3:255 -1:255 6 0] [0x2 1 1 [0 5] [3 8]] (REQUEST)
r 0.803595733 _4_ MAC  --- 0 AODV 48 [0 ffffffff 3 800] ------- [3:255 -1:255 6 0] [0x2 1 1 [0 5] [3 8]] (REQUEST)